
Predictions were generated on 11-Sep-2021 at 11:53:05 using BeamDyn




Time	TipTDxr   	TipTDyr   	TipTDzr   
(s)	(m)	(m)	(m)
       0.000000	 0.000E+00	 0.000E+00	 0.000E+00
       0.002000	 2.708E-04	 5.363E-04	-2.094E-09
       0.004000	 1.075E-03	 2.123E-03	-2.649E-08
       0.006000	 2.391E-03	 4.704E-03	-1.413E-07
       0.008000	 4.197E-03	 8.218E-03	-4.921E-07
       0.010000	 6.473E-03	 1.261E-02	-1.320E-06
       0.012000	 9.208E-03	 1.784E-02	-2.967E-06
       0.014000	 1.240E-02	 2.388E-02	-5.879E-06
       0.016000	 1.605E-02	 3.073E-02	-1.060E-05
       0.018000	 2.018E-02	 3.839E-02	-1.778E-05
       0.020000	 2.479E-02	 4.687E-02	-2.818E-05
       0.022000	 2.992E-02	 5.617E-02	-4.268E-05
       0.024000	 3.557E-02	 6.631E-02	-6.224E-05
       0.026000	 4.175E-02	 7.725E-02	-8.794E-05
       0.028000	 4.847E-02	 8.897E-02	-1.209E-04
       0.030000	 5.572E-02	 1.014E-01	-1.622E-04
       0.032000	 6.349E-02	 1.145E-01	-2.129E-04
       0.034000	 7.177E-02	 1.283E-01	-2.739E-04
       0.036000	 8.054E-02	 1.426E-01	-3.459E-04
       0.038000	 8.978E-02	 1.573E-01	-4.297E-04
       0.040000	 9.948E-02	 1.725E-01	-5.256E-04
       0.042000	 1.096E-01	 1.881E-01	-6.339E-04
       0.044000	 1.202E-01	 2.039E-01	-7.548E-04
       0.046000	 1.312E-01	 2.202E-01	-8.884E-04
       0.048000	 1.426E-01	 2.366E-01	-1.035E-03
       0.050000	 1.544E-01	 2.534E-01	-1.194E-03
       0.052000	 1.666E-01	 2.703E-01	-1.366E-03
       0.054000	 1.791E-01	 2.875E-01	-1.550E-03
       0.056000	 1.920E-01	 3.048E-01	-1.748E-03
       0.058000	 2.052E-01	 3.222E-01	-1.957E-03
       0.060000	 2.187E-01	 3.397E-01	-2.179E-03
       0.062000	 2.325E-01	 3.574E-01	-2.412E-03
       0.064000	 2.465E-01	 3.751E-01	-2.656E-03
       0.066000	 2.607E-01	 3.929E-01	-2.911E-03
       0.068000	 2.752E-01	 4.108E-01	-3.177E-03
       0.070000	 2.898E-01	 4.288E-01	-3.454E-03
       0.072000	 3.045E-01	 4.470E-01	-3.741E-03
       0.074000	 3.194E-01	 4.653E-01	-4.040E-03
       0.076000	 3.344E-01	 4.839E-01	-4.350E-03
       0.078000	 3.496E-01	 5.027E-01	-4.673E-03
       0.080000	 3.648E-01	 5.218E-01	-5.010E-03
       0.082000	 3.802E-01	 5.412E-01	-5.361E-03
       0.084000	 3.956E-01	 5.610E-01	-5.728E-03
       0.086000	 4.111E-01	 5.812E-01	-6.112E-03
       0.088000	 4.267E-01	 6.020E-01	-6.515E-03
       0.090000	 4.424E-01	 6.232E-01	-6.937E-03
       0.092000	 4.582E-01	 6.450E-01	-7.381E-03
       0.094000	 4.740E-01	 6.674E-01	-7.849E-03
       0.096000	 4.899E-01	 6.905E-01	-8.342E-03
       0.098000	 5.059E-01	 7.142E-01	-8.861E-03
       0.100000	 5.220E-01	 7.387E-01	-9.410E-03
       0.102000	 5.382E-01	 7.639E-01	-9.991E-03
       0.104000	 5.546E-01	 7.899E-01	-1.061E-02
       0.106000	 5.710E-01	 8.167E-01	-1.126E-02
       0.108000	 5.876E-01	 8.443E-01	-1.195E-02
       0.110000	 6.044E-01	 8.727E-01	-1.268E-02
       0.112000	 6.213E-01	 9.020E-01	-1.345E-02
       0.114000	 6.385E-01	 9.320E-01	-1.427E-02
       0.116000	 6.558E-01	 9.629E-01	-1.513E-02
       0.118000	 6.733E-01	 9.946E-01	-1.605E-02
       0.120000	 6.911E-01	 1.027E+00	-1.702E-02
       0.122000	 7.091E-01	 1.060E+00	-1.804E-02
       0.124000	 7.273E-01	 1.094E+00	-1.912E-02
       0.126000	 7.458E-01	 1.129E+00	-2.025E-02
       0.128000	 7.645E-01	 1.164E+00	-2.144E-02
       0.130000	 7.835E-01	 1.200E+00	-2.270E-02
       0.132000	 8.028E-01	 1.237E+00	-2.401E-02
       0.134000	 8.224E-01	 1.274E+00	-2.539E-02
       0.136000	 8.423E-01	 1.312E+00	-2.683E-02
       0.138000	 8.624E-01	 1.350E+00	-2.834E-02
       0.140000	 8.829E-01	 1.389E+00	-2.991E-02
       0.142000	 9.036E-01	 1.428E+00	-3.155E-02
       0.144000	 9.247E-01	 1.468E+00	-3.325E-02
       0.146000	 9.461E-01	 1.508E+00	-3.502E-02
       0.148000	 9.677E-01	 1.548E+00	-3.685E-02
       0.150000	 9.897E-01	 1.589E+00	-3.875E-02
       0.152000	 1.012E+00	 1.629E+00	-4.072E-02
       0.154000	 1.034E+00	 1.671E+00	-4.275E-02
       0.156000	 1.057E+00	 1.712E+00	-4.485E-02
       0.158000	 1.080E+00	 1.753E+00	-4.701E-02
       0.160000	 1.104E+00	 1.795E+00	-4.923E-02
       0.162000	 1.128E+00	 1.836E+00	-5.152E-02
       0.164000	 1.152E+00	 1.878E+00	-5.387E-02
       0.166000	 1.176E+00	 1.920E+00	-5.629E-02
       0.168000	 1.201E+00	 1.962E+00	-5.876E-02
       0.170000	 1.226E+00	 2.003E+00	-6.130E-02
       0.172000	 1.251E+00	 2.045E+00	-6.390E-02
       0.174000	 1.277E+00	 2.086E+00	-6.655E-02
       0.176000	 1.302E+00	 2.128E+00	-6.927E-02
       0.178000	 1.329E+00	 2.169E+00	-7.204E-02
       0.180000	 1.355E+00	 2.210E+00	-7.488E-02
       0.182000	 1.382E+00	 2.251E+00	-7.777E-02
       0.184000	 1.410E+00	 2.292E+00	-8.072E-02
       0.186000	 1.437E+00	 2.333E+00	-8.374E-02
       0.188000	 1.465E+00	 2.374E+00	-8.681E-02
       0.190000	 1.494E+00	 2.414E+00	-8.994E-02
       0.192000	 1.523E+00	 2.454E+00	-9.314E-02
       0.194000	 1.552E+00	 2.495E+00	-9.640E-02
       0.196000	 1.582E+00	 2.534E+00	-9.973E-02
       0.198000	 1.612E+00	 2.574E+00	-1.031E-01
       0.200000	 1.643E+00	 2.614E+00	-1.066E-01
       0.202000	 1.674E+00	 2.654E+00	-1.101E-01
       0.204000	 1.705E+00	 2.693E+00	-1.138E-01
       0.206000	 1.737E+00	 2.733E+00	-1.175E-01
       0.208000	 1.770E+00	 2.772E+00	-1.213E-01
       0.210000	 1.803E+00	 2.812E+00	-1.252E-01
       0.212000	 1.836E+00	 2.852E+00	-1.292E-01
       0.214000	 1.870E+00	 2.891E+00	-1.332E-01
       0.216000	 1.905E+00	 2.931E+00	-1.374E-01
       0.218000	 1.939E+00	 2.971E+00	-1.417E-01
       0.220000	 1.975E+00	 3.011E+00	-1.461E-01
       0.222000	 2.011E+00	 3.052E+00	-1.507E-01
       0.224000	 2.047E+00	 3.092E+00	-1.553E-01
       0.226000	 2.084E+00	 3.133E+00	-1.601E-01
       0.228000	 2.121E+00	 3.174E+00	-1.650E-01
       0.230000	 2.158E+00	 3.216E+00	-1.701E-01
       0.232000	 2.196E+00	 3.257E+00	-1.753E-01
       0.234000	 2.235E+00	 3.299E+00	-1.806E-01
       0.236000	 2.273E+00	 3.342E+00	-1.861E-01
       0.238000	 2.312E+00	 3.384E+00	-1.917E-01
       0.240000	 2.352E+00	 3.427E+00	-1.974E-01
       0.242000	 2.391E+00	 3.470E+00	-2.033E-01
       0.244000	 2.431E+00	 3.514E+00	-2.093E-01
       0.246000	 2.471E+00	 3.558E+00	-2.155E-01
       0.248000	 2.512E+00	 3.601E+00	-2.218E-01
       0.250000	 2.552E+00	 3.646E+00	-2.283E-01
       0.252000	 2.593E+00	 3.690E+00	-2.349E-01
       0.254000	 2.634E+00	 3.734E+00	-2.416E-01
       0.256000	 2.675E+00	 3.779E+00	-2.484E-01
       0.258000	 2.716E+00	 3.823E+00	-2.554E-01
       0.260000	 2.758E+00	 3.868E+00	-2.625E-01
       0.262000	 2.799E+00	 3.913E+00	-2.697E-01
       0.264000	 2.841E+00	 3.957E+00	-2.770E-01
       0.266000	 2.882E+00	 4.002E+00	-2.845E-01
       0.268000	 2.924E+00	 4.046E+00	-2.920E-01
       0.270000	 2.966E+00	 4.090E+00	-2.996E-01
       0.272000	 3.008E+00	 4.134E+00	-3.073E-01
       0.274000	 3.050E+00	 4.178E+00	-3.151E-01
       0.276000	 3.091E+00	 4.222E+00	-3.230E-01
       0.278000	 3.133E+00	 4.265E+00	-3.309E-01
       0.280000	 3.175E+00	 4.308E+00	-3.389E-01
       0.282000	 3.217E+00	 4.350E+00	-3.470E-01
       0.284000	 3.259E+00	 4.392E+00	-3.551E-01
       0.286000	 3.301E+00	 4.434E+00	-3.633E-01
       0.288000	 3.343E+00	 4.475E+00	-3.715E-01
       0.290000	 3.384E+00	 4.516E+00	-3.798E-01
       0.292000	 3.426E+00	 4.556E+00	-3.881E-01
       0.294000	 3.468E+00	 4.596E+00	-3.965E-01
       0.296000	 3.510E+00	 4.636E+00	-4.049E-01
       0.298000	 3.552E+00	 4.674E+00	-4.133E-01
       0.300000	 3.594E+00	 4.713E+00	-4.218E-01
       0.302000	 3.635E+00	 4.751E+00	-4.303E-01
       0.304000	 3.677E+00	 4.788E+00	-4.388E-01
       0.306000	 3.719E+00	 4.825E+00	-4.474E-01
       0.308000	 3.760E+00	 4.862E+00	-4.560E-01
       0.310000	 3.802E+00	 4.898E+00	-4.646E-01
       0.312000	 3.843E+00	 4.933E+00	-4.732E-01
       0.314000	 3.885E+00	 4.968E+00	-4.819E-01
       0.316000	 3.926E+00	 5.003E+00	-4.906E-01
       0.318000	 3.968E+00	 5.037E+00	-4.994E-01
       0.320000	 4.009E+00	 5.071E+00	-5.081E-01
       0.322000	 4.051E+00	 5.105E+00	-5.169E-01
       0.324000	 4.092E+00	 5.138E+00	-5.258E-01
       0.326000	 4.133E+00	 5.170E+00	-5.346E-01
       0.328000	 4.174E+00	 5.202E+00	-5.435E-01
       0.330000	 4.215E+00	 5.234E+00	-5.524E-01
       0.332000	 4.256E+00	 5.266E+00	-5.614E-01
       0.334000	 4.297E+00	 5.297E+00	-5.704E-01
       0.336000	 4.338E+00	 5.328E+00	-5.795E-01
       0.338000	 4.378E+00	 5.359E+00	-5.886E-01
       0.340000	 4.419E+00	 5.390E+00	-5.977E-01
       0.342000	 4.460E+00	 5.420E+00	-6.069E-01
       0.344000	 4.500E+00	 5.450E+00	-6.161E-01
       0.346000	 4.541E+00	 5.480E+00	-6.254E-01
       0.348000	 4.581E+00	 5.510E+00	-6.348E-01
       0.350000	 4.622E+00	 5.539E+00	-6.442E-01
       0.352000	 4.662E+00	 5.568E+00	-6.536E-01
       0.354000	 4.702E+00	 5.598E+00	-6.632E-01
       0.356000	 4.743E+00	 5.627E+00	-6.728E-01
       0.358000	 4.783E+00	 5.655E+00	-6.825E-01
       0.360000	 4.824E+00	 5.684E+00	-6.922E-01
       0.362000	 4.864E+00	 5.712E+00	-7.020E-01
       0.364000	 4.904E+00	 5.741E+00	-7.120E-01
       0.366000	 4.945E+00	 5.768E+00	-7.219E-01
       0.368000	 4.986E+00	 5.796E+00	-7.320E-01
       0.370000	 5.026E+00	 5.824E+00	-7.422E-01
       0.372000	 5.067E+00	 5.851E+00	-7.524E-01
       0.374000	 5.108E+00	 5.878E+00	-7.627E-01
       0.376000	 5.149E+00	 5.905E+00	-7.731E-01
       0.378000	 5.190E+00	 5.931E+00	-7.836E-01
       0.380000	 5.231E+00	 5.957E+00	-7.941E-01
       0.382000	 5.273E+00	 5.983E+00	-8.047E-01
       0.384000	 5.314E+00	 6.008E+00	-8.154E-01
       0.386000	 5.356E+00	 6.032E+00	-8.262E-01
       0.388000	 5.398E+00	 6.057E+00	-8.370E-01
       0.390000	 5.440E+00	 6.080E+00	-8.479E-01
       0.392000	 5.482E+00	 6.103E+00	-8.588E-01
       0.394000	 5.524E+00	 6.126E+00	-8.698E-01
       0.396000	 5.567E+00	 6.148E+00	-8.808E-01
       0.398000	 5.609E+00	 6.169E+00	-8.919E-01
       0.400000	 5.652E+00	 6.190E+00	-9.030E-01
       0.402000	 5.695E+00	 6.210E+00	-9.141E-01
       0.404000	 5.738E+00	 6.230E+00	-9.253E-01
       0.406000	 5.781E+00	 6.248E+00	-9.365E-01
       0.408000	 5.824E+00	 6.266E+00	-9.477E-01
       0.410000	 5.867E+00	 6.284E+00	-9.589E-01
       0.412000	 5.910E+00	 6.300E+00	-9.701E-01
       0.414000	 5.953E+00	 6.316E+00	-9.813E-01
       0.416000	 5.997E+00	 6.331E+00	-9.925E-01
       0.418000	 6.040E+00	 6.346E+00	-1.004E+00
       0.420000	 6.083E+00	 6.360E+00	-1.015E+00
       0.422000	 6.127E+00	 6.373E+00	-1.026E+00
       0.424000	 6.170E+00	 6.385E+00	-1.037E+00
       0.426000	 6.213E+00	 6.397E+00	-1.048E+00
       0.428000	 6.256E+00	 6.408E+00	-1.060E+00
       0.430000	 6.299E+00	 6.418E+00	-1.071E+00
       0.432000	 6.342E+00	 6.428E+00	-1.082E+00
       0.434000	 6.385E+00	 6.437E+00	-1.093E+00
       0.436000	 6.428E+00	 6.446E+00	-1.104E+00
       0.438000	 6.471E+00	 6.454E+00	-1.115E+00
       0.440000	 6.513E+00	 6.461E+00	-1.126E+00
       0.442000	 6.555E+00	 6.468E+00	-1.137E+00
       0.444000	 6.597E+00	 6.474E+00	-1.148E+00
       0.446000	 6.639E+00	 6.480E+00	-1.158E+00
       0.448000	 6.681E+00	 6.485E+00	-1.169E+00
       0.450000	 6.723E+00	 6.490E+00	-1.180E+00
       0.452000	 6.764E+00	 6.494E+00	-1.191E+00
       0.454000	 6.805E+00	 6.498E+00	-1.201E+00
       0.456000	 6.846E+00	 6.501E+00	-1.212E+00
       0.458000	 6.886E+00	 6.504E+00	-1.222E+00
       0.460000	 6.926E+00	 6.507E+00	-1.233E+00
       0.462000	 6.966E+00	 6.509E+00	-1.243E+00
       0.464000	 7.006E+00	 6.510E+00	-1.254E+00
       0.466000	 7.045E+00	 6.511E+00	-1.264E+00
       0.468000	 7.084E+00	 6.512E+00	-1.274E+00
       0.470000	 7.122E+00	 6.513E+00	-1.284E+00
       0.472000	 7.160E+00	 6.512E+00	-1.294E+00
       0.474000	 7.198E+00	 6.512E+00	-1.304E+00
       0.476000	 7.236E+00	 6.511E+00	-1.314E+00
       0.478000	 7.273E+00	 6.510E+00	-1.323E+00
       0.480000	 7.309E+00	 6.508E+00	-1.333E+00
       0.482000	 7.345E+00	 6.505E+00	-1.342E+00
       0.484000	 7.381E+00	 6.503E+00	-1.352E+00
       0.486000	 7.416E+00	 6.500E+00	-1.361E+00
       0.488000	 7.451E+00	 6.496E+00	-1.370E+00
       0.490000	 7.486E+00	 6.492E+00	-1.378E+00
       0.492000	 7.519E+00	 6.487E+00	-1.387E+00
       0.494000	 7.553E+00	 6.482E+00	-1.395E+00
       0.496000	 7.586E+00	 6.476E+00	-1.404E+00
       0.498000	 7.618E+00	 6.470E+00	-1.412E+00
       0.500000	 7.650E+00	 6.463E+00	-1.419E+00
       0.502000	 7.682E+00	 6.456E+00	-1.427E+00
       0.504000	 7.712E+00	 6.448E+00	-1.434E+00
       0.506000	 7.743E+00	 6.439E+00	-1.441E+00
       0.508000	 7.773E+00	 6.430E+00	-1.448E+00
       0.510000	 7.802E+00	 6.420E+00	-1.455E+00
       0.512000	 7.831E+00	 6.409E+00	-1.462E+00
       0.514000	 7.860E+00	 6.397E+00	-1.468E+00
       0.516000	 7.888E+00	 6.385E+00	-1.474E+00
       0.518000	 7.915E+00	 6.372E+00	-1.479E+00
       0.520000	 7.942E+00	 6.359E+00	-1.485E+00
       0.522000	 7.969E+00	 6.344E+00	-1.490E+00
       0.524000	 7.995E+00	 6.329E+00	-1.495E+00
       0.526000	 8.021E+00	 6.313E+00	-1.500E+00
       0.528000	 8.047E+00	 6.297E+00	-1.504E+00
       0.530000	 8.072E+00	 6.279E+00	-1.509E+00
       0.532000	 8.096E+00	 6.261E+00	-1.513E+00
       0.534000	 8.121E+00	 6.242E+00	-1.517E+00
       0.536000	 8.145E+00	 6.222E+00	-1.520E+00
       0.538000	 8.168E+00	 6.202E+00	-1.523E+00
       0.540000	 8.192E+00	 6.180E+00	-1.527E+00
       0.542000	 8.215E+00	 6.158E+00	-1.530E+00
       0.544000	 8.237E+00	 6.135E+00	-1.532E+00
       0.546000	 8.260E+00	 6.112E+00	-1.535E+00
       0.548000	 8.282E+00	 6.087E+00	-1.537E+00
       0.550000	 8.304E+00	 6.063E+00	-1.540E+00
       0.552000	 8.325E+00	 6.037E+00	-1.542E+00
       0.554000	 8.346E+00	 6.011E+00	-1.543E+00
       0.556000	 8.367E+00	 5.984E+00	-1.545E+00
       0.558000	 8.388E+00	 5.956E+00	-1.547E+00
       0.560000	 8.408E+00	 5.928E+00	-1.548E+00
       0.562000	 8.428E+00	 5.899E+00	-1.549E+00
       0.564000	 8.448E+00	 5.870E+00	-1.550E+00
       0.566000	 8.468E+00	 5.840E+00	-1.551E+00
       0.568000	 8.487E+00	 5.810E+00	-1.552E+00
       0.570000	 8.506E+00	 5.780E+00	-1.553E+00
       0.572000	 8.524E+00	 5.748E+00	-1.553E+00
       0.574000	 8.543E+00	 5.717E+00	-1.553E+00
       0.576000	 8.560E+00	 5.685E+00	-1.554E+00
       0.578000	 8.578E+00	 5.652E+00	-1.554E+00
       0.580000	 8.595E+00	 5.619E+00	-1.554E+00
       0.582000	 8.612E+00	 5.586E+00	-1.553E+00
       0.584000	 8.628E+00	 5.552E+00	-1.553E+00
       0.586000	 8.645E+00	 5.518E+00	-1.553E+00
       0.588000	 8.660E+00	 5.484E+00	-1.552E+00
       0.590000	 8.676E+00	 5.449E+00	-1.551E+00
       0.592000	 8.690E+00	 5.414E+00	-1.550E+00
       0.594000	 8.705E+00	 5.378E+00	-1.549E+00
       0.596000	 8.719E+00	 5.342E+00	-1.548E+00
       0.598000	 8.733E+00	 5.306E+00	-1.546E+00
       0.600000	 8.746E+00	 5.270E+00	-1.545E+00
       0.602000	 8.759E+00	 5.232E+00	-1.543E+00
       0.604000	 8.771E+00	 5.195E+00	-1.541E+00
       0.606000	 8.783E+00	 5.157E+00	-1.539E+00
       0.608000	 8.795E+00	 5.119E+00	-1.537E+00
       0.610000	 8.806E+00	 5.080E+00	-1.534E+00
       0.612000	 8.817E+00	 5.041E+00	-1.532E+00
       0.614000	 8.827E+00	 5.002E+00	-1.529E+00
       0.616000	 8.837E+00	 4.962E+00	-1.526E+00
       0.618000	 8.846E+00	 4.921E+00	-1.523E+00
       0.620000	 8.855E+00	 4.880E+00	-1.519E+00
       0.622000	 8.863E+00	 4.839E+00	-1.516E+00
       0.624000	 8.871E+00	 4.797E+00	-1.512E+00
       0.626000	 8.879E+00	 4.755E+00	-1.508E+00
       0.628000	 8.886E+00	 4.712E+00	-1.504E+00
       0.630000	 8.892E+00	 4.669E+00	-1.500E+00
       0.632000	 8.898E+00	 4.625E+00	-1.495E+00
       0.634000	 8.903E+00	 4.581E+00	-1.490E+00
       0.636000	 8.908E+00	 4.536E+00	-1.485E+00
       0.638000	 8.912E+00	 4.491E+00	-1.480E+00
       0.640000	 8.916E+00	 4.445E+00	-1.475E+00
       0.642000	 8.919E+00	 4.398E+00	-1.469E+00
       0.644000	 8.922E+00	 4.352E+00	-1.463E+00
       0.646000	 8.924E+00	 4.305E+00	-1.457E+00
       0.648000	 8.925E+00	 4.257E+00	-1.451E+00
       0.650000	 8.926E+00	 4.209E+00	-1.444E+00
       0.652000	 8.926E+00	 4.160E+00	-1.438E+00
       0.654000	 8.926E+00	 4.111E+00	-1.431E+00
       0.656000	 8.925E+00	 4.062E+00	-1.424E+00
       0.658000	 8.923E+00	 4.012E+00	-1.416E+00
       0.660000	 8.921E+00	 3.962E+00	-1.409E+00
       0.662000	 8.918E+00	 3.912E+00	-1.401E+00
       0.664000	 8.914E+00	 3.861E+00	-1.393E+00
       0.666000	 8.910E+00	 3.810E+00	-1.385E+00
       0.668000	 8.906E+00	 3.759E+00	-1.377E+00
       0.670000	 8.900E+00	 3.708E+00	-1.369E+00
       0.672000	 8.894E+00	 3.656E+00	-1.360E+00
       0.674000	 8.887E+00	 3.605E+00	-1.352E+00
       0.676000	 8.880E+00	 3.553E+00	-1.343E+00
       0.678000	 8.872E+00	 3.501E+00	-1.334E+00
       0.680000	 8.864E+00	 3.449E+00	-1.325E+00
       0.682000	 8.855E+00	 3.397E+00	-1.316E+00
       0.684000	 8.845E+00	 3.345E+00	-1.306E+00
       0.686000	 8.835E+00	 3.293E+00	-1.297E+00
       0.688000	 8.824E+00	 3.241E+00	-1.287E+00
       0.690000	 8.813E+00	 3.189E+00	-1.278E+00
       0.692000	 8.801E+00	 3.137E+00	-1.268E+00
       0.694000	 8.788E+00	 3.085E+00	-1.259E+00
       0.696000	 8.775E+00	 3.034E+00	-1.249E+00
       0.698000	 8.762E+00	 2.982E+00	-1.239E+00
       0.700000	 8.748E+00	 2.931E+00	-1.229E+00
       0.702000	 8.734E+00	 2.880E+00	-1.219E+00
       0.704000	 8.719E+00	 2.830E+00	-1.210E+00
       0.706000	 8.703E+00	 2.779E+00	-1.200E+00
       0.708000	 8.688E+00	 2.729E+00	-1.190E+00
       0.710000	 8.671E+00	 2.679E+00	-1.180E+00
       0.712000	 8.655E+00	 2.629E+00	-1.170E+00
       0.714000	 8.638E+00	 2.580E+00	-1.160E+00
       0.716000	 8.621E+00	 2.531E+00	-1.150E+00
       0.718000	 8.603E+00	 2.482E+00	-1.141E+00
       0.720000	 8.585E+00	 2.433E+00	-1.131E+00
       0.722000	 8.567E+00	 2.385E+00	-1.121E+00
       0.724000	 8.548E+00	 2.337E+00	-1.111E+00
       0.726000	 8.529E+00	 2.290E+00	-1.102E+00
       0.728000	 8.510E+00	 2.243E+00	-1.092E+00
       0.730000	 8.490E+00	 2.196E+00	-1.083E+00
       0.732000	 8.471E+00	 2.149E+00	-1.073E+00
       0.734000	 8.451E+00	 2.103E+00	-1.064E+00
       0.736000	 8.430E+00	 2.057E+00	-1.054E+00
       0.738000	 8.410E+00	 2.011E+00	-1.045E+00
       0.740000	 8.389E+00	 1.965E+00	-1.036E+00
       0.742000	 8.369E+00	 1.920E+00	-1.027E+00
       0.744000	 8.348E+00	 1.876E+00	-1.018E+00
       0.746000	 8.327E+00	 1.831E+00	-1.009E+00
       0.748000	 8.305E+00	 1.787E+00	-9.997E-01
       0.750000	 8.284E+00	 1.743E+00	-9.909E-01
       0.752000	 8.263E+00	 1.699E+00	-9.822E-01
       0.754000	 8.241E+00	 1.656E+00	-9.736E-01
       0.756000	 8.219E+00	 1.613E+00	-9.650E-01
       0.758000	 8.198E+00	 1.570E+00	-9.566E-01
       0.760000	 8.176E+00	 1.528E+00	-9.483E-01
       0.762000	 8.154E+00	 1.486E+00	-9.401E-01
       0.764000	 8.132E+00	 1.444E+00	-9.320E-01
       0.766000	 8.110E+00	 1.403E+00	-9.240E-01
       0.768000	 8.088E+00	 1.362E+00	-9.161E-01
       0.770000	 8.066E+00	 1.322E+00	-9.083E-01
       0.772000	 8.044E+00	 1.281E+00	-9.006E-01
       0.774000	 8.022E+00	 1.241E+00	-8.930E-01
       0.776000	 8.000E+00	 1.202E+00	-8.856E-01
       0.778000	 7.978E+00	 1.163E+00	-8.782E-01
       0.780000	 7.956E+00	 1.124E+00	-8.710E-01
       0.782000	 7.934E+00	 1.086E+00	-8.639E-01
       0.784000	 7.912E+00	 1.048E+00	-8.568E-01
       0.786000	 7.890E+00	 1.011E+00	-8.499E-01
       0.788000	 7.868E+00	 9.744E-01	-8.431E-01
       0.790000	 7.846E+00	 9.381E-01	-8.364E-01
       0.792000	 7.824E+00	 9.023E-01	-8.298E-01
       0.794000	 7.802E+00	 8.671E-01	-8.233E-01
       0.796000	 7.780E+00	 8.324E-01	-8.169E-01
       0.798000	 7.758E+00	 7.982E-01	-8.106E-01
       0.800000	 7.736E+00	 7.646E-01	-8.044E-01
       0.802000	 7.714E+00	 7.316E-01	-7.983E-01
       0.804000	 7.692E+00	 6.992E-01	-7.923E-01
       0.806000	 7.670E+00	 6.674E-01	-7.863E-01
       0.808000	 7.649E+00	 6.362E-01	-7.805E-01
       0.810000	 7.627E+00	 6.056E-01	-7.747E-01
       0.812000	 7.605E+00	 5.757E-01	-7.690E-01
       0.814000	 7.583E+00	 5.464E-01	-7.634E-01
       0.816000	 7.561E+00	 5.178E-01	-7.579E-01
       0.818000	 7.539E+00	 4.898E-01	-7.524E-01
       0.820000	 7.517E+00	 4.625E-01	-7.470E-01
       0.822000	 7.495E+00	 4.358E-01	-7.417E-01
       0.824000	 7.473E+00	 4.098E-01	-7.364E-01
       0.826000	 7.451E+00	 3.845E-01	-7.313E-01
       0.828000	 7.429E+00	 3.598E-01	-7.261E-01
       0.830000	 7.407E+00	 3.358E-01	-7.211E-01
       0.832000	 7.385E+00	 3.125E-01	-7.160E-01
       0.834000	 7.363E+00	 2.898E-01	-7.111E-01
       0.836000	 7.341E+00	 2.677E-01	-7.062E-01
       0.838000	 7.319E+00	 2.463E-01	-7.013E-01
       0.840000	 7.297E+00	 2.255E-01	-6.966E-01
       0.842000	 7.275E+00	 2.053E-01	-6.918E-01
       0.844000	 7.253E+00	 1.857E-01	-6.871E-01
       0.846000	 7.231E+00	 1.667E-01	-6.825E-01
       0.848000	 7.209E+00	 1.483E-01	-6.779E-01
       0.850000	 7.186E+00	 1.305E-01	-6.734E-01
       0.852000	 7.164E+00	 1.132E-01	-6.689E-01
       0.854000	 7.142E+00	 9.639E-02	-6.644E-01
       0.856000	 7.120E+00	 8.014E-02	-6.601E-01
       0.858000	 7.098E+00	 6.439E-02	-6.557E-01
       0.860000	 7.076E+00	 4.914E-02	-6.514E-01
       0.862000	 7.053E+00	 3.436E-02	-6.472E-01
       0.864000	 7.031E+00	 2.005E-02	-6.430E-01
       0.866000	 7.009E+00	 6.187E-03	-6.388E-01
       0.868000	 6.987E+00	-7.240E-03	-6.347E-01
       0.870000	 6.965E+00	-2.024E-02	-6.306E-01
       0.872000	 6.943E+00	-3.283E-02	-6.266E-01
       0.874000	 6.921E+00	-4.501E-02	-6.226E-01
       0.876000	 6.898E+00	-5.679E-02	-6.187E-01
       0.878000	 6.876E+00	-6.819E-02	-6.148E-01
       0.880000	 6.854E+00	-7.920E-02	-6.110E-01
       0.882000	 6.832E+00	-8.983E-02	-6.072E-01
       0.884000	 6.810E+00	-1.001E-01	-6.034E-01
       0.886000	 6.789E+00	-1.100E-01	-5.997E-01
       0.888000	 6.767E+00	-1.195E-01	-5.961E-01
       0.890000	 6.745E+00	-1.286E-01	-5.925E-01
       0.892000	 6.723E+00	-1.374E-01	-5.889E-01
       0.894000	 6.701E+00	-1.458E-01	-5.854E-01
       0.896000	 6.680E+00	-1.539E-01	-5.819E-01
       0.898000	 6.658E+00	-1.615E-01	-5.785E-01
       0.900000	 6.637E+00	-1.688E-01	-5.751E-01
       0.902000	 6.615E+00	-1.756E-01	-5.718E-01
       0.904000	 6.594E+00	-1.821E-01	-5.685E-01
       0.906000	 6.573E+00	-1.882E-01	-5.653E-01
       0.908000	 6.552E+00	-1.938E-01	-5.621E-01
       0.910000	 6.531E+00	-1.991E-01	-5.590E-01
       0.912000	 6.510E+00	-2.039E-01	-5.559E-01
       0.914000	 6.489E+00	-2.082E-01	-5.529E-01
       0.916000	 6.468E+00	-2.121E-01	-5.499E-01
       0.918000	 6.447E+00	-2.156E-01	-5.470E-01
       0.920000	 6.427E+00	-2.186E-01	-5.442E-01
       0.922000	 6.407E+00	-2.211E-01	-5.413E-01
       0.924000	 6.386E+00	-2.232E-01	-5.386E-01
       0.926000	 6.366E+00	-2.248E-01	-5.359E-01
       0.928000	 6.346E+00	-2.258E-01	-5.332E-01
       0.930000	 6.326E+00	-2.264E-01	-5.306E-01
       0.932000	 6.307E+00	-2.264E-01	-5.281E-01
       0.934000	 6.287E+00	-2.260E-01	-5.256E-01
       0.936000	 6.268E+00	-2.250E-01	-5.231E-01
       0.938000	 6.248E+00	-2.235E-01	-5.207E-01
       0.940000	 6.229E+00	-2.215E-01	-5.184E-01
       0.942000	 6.210E+00	-2.190E-01	-5.161E-01
       0.944000	 6.191E+00	-2.159E-01	-5.139E-01
       0.946000	 6.173E+00	-2.123E-01	-5.117E-01
       0.948000	 6.154E+00	-2.082E-01	-5.095E-01
       0.950000	 6.136E+00	-2.035E-01	-5.074E-01
       0.952000	 6.117E+00	-1.983E-01	-5.053E-01
       0.954000	 6.099E+00	-1.926E-01	-5.033E-01
       0.956000	 6.081E+00	-1.864E-01	-5.014E-01
       0.958000	 6.063E+00	-1.796E-01	-4.994E-01
       0.960000	 6.045E+00	-1.724E-01	-4.975E-01
       0.962000	 6.027E+00	-1.646E-01	-4.956E-01
       0.964000	 6.009E+00	-1.563E-01	-4.938E-01
       0.966000	 5.992E+00	-1.476E-01	-4.920E-01
       0.968000	 5.974E+00	-1.383E-01	-4.902E-01
       0.970000	 5.956E+00	-1.286E-01	-4.885E-01
       0.972000	 5.939E+00	-1.183E-01	-4.868E-01
       0.974000	 5.921E+00	-1.076E-01	-4.851E-01
       0.976000	 5.904E+00	-9.645E-02	-4.834E-01
       0.978000	 5.886E+00	-8.482E-02	-4.817E-01
       0.980000	 5.869E+00	-7.272E-02	-4.800E-01
       0.982000	 5.851E+00	-6.017E-02	-4.784E-01
       0.984000	 5.833E+00	-4.717E-02	-4.767E-01
       0.986000	 5.816E+00	-3.373E-02	-4.751E-01
       0.988000	 5.798E+00	-1.984E-02	-4.735E-01
       0.990000	 5.780E+00	-5.504E-03	-4.718E-01
       0.992000	 5.762E+00	 9.270E-03	-4.702E-01
       0.994000	 5.744E+00	 2.449E-02	-4.685E-01
       0.996000	 5.726E+00	 4.014E-02	-4.669E-01
       0.998000	 5.708E+00	 5.625E-02	-4.652E-01
       1.000000	 5.690E+00	 7.280E-02	-4.635E-01
       1.002000	 5.671E+00	 8.980E-02	-4.618E-01
