
Predictions were generated on 08-Sep-2020 at 15:27:37 using BeamDyn




Time	TipTDxr   	TipTDyr   	TipTDzr   
(s)	(m)	(m)	(m)
       0.000000	 0.000E+00	 0.000E+00	 0.000E+00
       0.002000	 5.417E-08	 5.362E-08	 0.000E+00
       0.004000	 2.150E-07	 2.123E-07	 0.000E+00
       0.006000	 4.783E-07	 4.704E-07	 0.000E+00
       0.008000	 8.394E-07	 8.217E-07	-7.105E-15
       0.010000	 1.295E-06	 1.261E-06	-2.132E-14
       0.012000	 1.842E-06	 1.784E-06	-4.974E-14
       0.014000	 2.480E-06	 2.387E-06	-9.948E-14
       0.016000	 3.211E-06	 3.072E-06	-1.847E-13
       0.018000	 4.036E-06	 3.837E-06	-3.055E-13
       0.020000	 4.961E-06	 4.684E-06	-4.903E-13
       0.022000	 5.987E-06	 5.614E-06	-7.461E-13
       0.024000	 7.119E-06	 6.626E-06	-1.094E-12
       0.026000	 8.358E-06	 7.718E-06	-1.563E-12
       0.028000	 9.705E-06	 8.887E-06	-2.160E-12
       0.030000	 1.116E-05	 1.013E-05	-2.920E-12
       0.032000	 1.272E-05	 1.144E-05	-3.865E-12
       0.034000	 1.438E-05	 1.281E-05	-5.016E-12
       0.036000	 1.614E-05	 1.423E-05	-6.402E-12
       0.038000	 1.800E-05	 1.570E-05	-8.043E-12
       0.040000	 1.995E-05	 1.721E-05	-9.955E-12
       0.042000	 2.200E-05	 1.875E-05	-1.216E-11
       0.044000	 2.413E-05	 2.033E-05	-1.466E-11
       0.046000	 2.634E-05	 2.194E-05	-1.748E-11
       0.048000	 2.865E-05	 2.358E-05	-2.063E-11
       0.050000	 3.103E-05	 2.524E-05	-2.412E-11
       0.052000	 3.349E-05	 2.692E-05	-2.796E-11
       0.054000	 3.603E-05	 2.862E-05	-3.217E-11
       0.056000	 3.864E-05	 3.034E-05	-3.674E-11
       0.058000	 4.131E-05	 3.206E-05	-4.168E-11
       0.060000	 4.405E-05	 3.380E-05	-4.700E-11
       0.062000	 4.684E-05	 3.555E-05	-5.269E-11
       0.064000	 4.968E-05	 3.730E-05	-5.875E-11
       0.066000	 5.257E-05	 3.907E-05	-6.516E-11
       0.068000	 5.550E-05	 4.084E-05	-7.191E-11
       0.070000	 5.847E-05	 4.262E-05	-7.901E-11
       0.072000	 6.147E-05	 4.442E-05	-8.642E-11
       0.074000	 6.450E-05	 4.623E-05	-9.414E-11
       0.076000	 6.756E-05	 4.807E-05	-1.022E-10
       0.078000	 7.064E-05	 4.993E-05	-1.105E-10
       0.080000	 7.374E-05	 5.183E-05	-1.192E-10
       0.082000	 7.686E-05	 5.375E-05	-1.281E-10
       0.084000	 8.000E-05	 5.572E-05	-1.374E-10
       0.086000	 8.315E-05	 5.773E-05	-1.469E-10
       0.088000	 8.632E-05	 5.979E-05	-1.568E-10
       0.090000	 8.950E-05	 6.190E-05	-1.669E-10
       0.092000	 9.270E-05	 6.407E-05	-1.775E-10
       0.094000	 9.591E-05	 6.630E-05	-1.883E-10
       0.096000	 9.913E-05	 6.860E-05	-1.995E-10
       0.098000	 1.024E-04	 7.097E-05	-2.111E-10
       0.100000	 1.056E-04	 7.341E-05	-2.230E-10
       0.102000	 1.089E-04	 7.593E-05	-2.354E-10
       0.104000	 1.122E-04	 7.852E-05	-2.483E-10
       0.106000	 1.155E-04	 8.120E-05	-2.616E-10
       0.108000	 1.188E-04	 8.396E-05	-2.755E-10
       0.110000	 1.222E-04	 8.680E-05	-2.900E-10
       0.112000	 1.256E-04	 8.973E-05	-3.050E-10
       0.114000	 1.290E-04	 9.274E-05	-3.208E-10
       0.116000	 1.325E-04	 9.583E-05	-3.372E-10
       0.118000	 1.360E-04	 9.900E-05	-3.544E-10
       0.120000	 1.395E-04	 1.022E-04	-3.723E-10
       0.122000	 1.431E-04	 1.056E-04	-3.911E-10
       0.124000	 1.467E-04	 1.090E-04	-4.108E-10
       0.126000	 1.504E-04	 1.124E-04	-4.314E-10
       0.128000	 1.541E-04	 1.160E-04	-4.529E-10
       0.130000	 1.579E-04	 1.196E-04	-4.754E-10
       0.132000	 1.617E-04	 1.232E-04	-4.990E-10
       0.134000	 1.656E-04	 1.270E-04	-5.236E-10
       0.136000	 1.695E-04	 1.307E-04	-5.493E-10
       0.138000	 1.735E-04	 1.346E-04	-5.761E-10
       0.140000	 1.775E-04	 1.384E-04	-6.040E-10
       0.142000	 1.816E-04	 1.423E-04	-6.332E-10
       0.144000	 1.858E-04	 1.463E-04	-6.635E-10
       0.146000	 1.900E-04	 1.503E-04	-6.951E-10
       0.148000	 1.943E-04	 1.543E-04	-7.279E-10
       0.150000	 1.987E-04	 1.584E-04	-7.619E-10
       0.152000	 2.031E-04	 1.624E-04	-7.972E-10
       0.154000	 2.075E-04	 1.665E-04	-8.338E-10
       0.156000	 2.120E-04	 1.706E-04	-8.717E-10
       0.158000	 2.166E-04	 1.747E-04	-9.109E-10
       0.160000	 2.213E-04	 1.789E-04	-9.514E-10
       0.162000	 2.260E-04	 1.830E-04	-9.933E-10
       0.164000	 2.308E-04	 1.871E-04	-1.037E-09
       0.166000	 2.356E-04	 1.913E-04	-1.081E-09
       0.168000	 2.405E-04	 1.954E-04	-1.127E-09
       0.170000	 2.455E-04	 1.995E-04	-1.174E-09
       0.172000	 2.505E-04	 2.037E-04	-1.223E-09
       0.174000	 2.556E-04	 2.078E-04	-1.274E-09
       0.176000	 2.608E-04	 2.119E-04	-1.325E-09
       0.178000	 2.661E-04	 2.160E-04	-1.379E-09
       0.180000	 2.714E-04	 2.200E-04	-1.433E-09
       0.182000	 2.768E-04	 2.241E-04	-1.490E-09
       0.184000	 2.823E-04	 2.281E-04	-1.548E-09
       0.186000	 2.879E-04	 2.321E-04	-1.607E-09
       0.188000	 2.935E-04	 2.361E-04	-1.669E-09
       0.190000	 2.992E-04	 2.401E-04	-1.732E-09
       0.192000	 3.051E-04	 2.440E-04	-1.797E-09
       0.194000	 3.110E-04	 2.479E-04	-1.864E-09
       0.196000	 3.170E-04	 2.518E-04	-1.933E-09
       0.198000	 3.231E-04	 2.557E-04	-2.004E-09
       0.200000	 3.292E-04	 2.596E-04	-2.077E-09
       0.202000	 3.355E-04	 2.635E-04	-2.153E-09
       0.204000	 3.419E-04	 2.673E-04	-2.230E-09
       0.206000	 3.484E-04	 2.712E-04	-2.310E-09
       0.208000	 3.550E-04	 2.750E-04	-2.393E-09
       0.210000	 3.617E-04	 2.788E-04	-2.478E-09
       0.212000	 3.684E-04	 2.827E-04	-2.567E-09
       0.214000	 3.753E-04	 2.865E-04	-2.657E-09
       0.216000	 3.823E-04	 2.904E-04	-2.751E-09
       0.218000	 3.894E-04	 2.942E-04	-2.848E-09
       0.220000	 3.966E-04	 2.981E-04	-2.948E-09
       0.222000	 4.038E-04	 3.020E-04	-3.051E-09
       0.224000	 4.112E-04	 3.059E-04	-3.157E-09
       0.226000	 4.187E-04	 3.098E-04	-3.267E-09
       0.228000	 4.262E-04	 3.138E-04	-3.380E-09
       0.230000	 4.338E-04	 3.177E-04	-3.496E-09
       0.232000	 4.416E-04	 3.217E-04	-3.616E-09
       0.234000	 4.493E-04	 3.258E-04	-3.739E-09
       0.236000	 4.572E-04	 3.298E-04	-3.866E-09
       0.238000	 4.652E-04	 3.339E-04	-3.997E-09
       0.240000	 4.732E-04	 3.380E-04	-4.131E-09
       0.242000	 4.812E-04	 3.421E-04	-4.269E-09
       0.244000	 4.894E-04	 3.463E-04	-4.410E-09
       0.246000	 4.975E-04	 3.504E-04	-4.555E-09
       0.248000	 5.058E-04	 3.546E-04	-4.703E-09
       0.250000	 5.140E-04	 3.588E-04	-4.855E-09
       0.252000	 5.224E-04	 3.630E-04	-5.010E-09
       0.254000	 5.307E-04	 3.673E-04	-5.168E-09
       0.256000	 5.391E-04	 3.715E-04	-5.330E-09
       0.258000	 5.475E-04	 3.758E-04	-5.495E-09
       0.260000	 5.560E-04	 3.800E-04	-5.663E-09
       0.262000	 5.645E-04	 3.842E-04	-5.834E-09
       0.264000	 5.729E-04	 3.885E-04	-6.008E-09
       0.266000	 5.814E-04	 3.927E-04	-6.184E-09
       0.268000	 5.900E-04	 3.969E-04	-6.364E-09
       0.270000	 5.985E-04	 4.010E-04	-6.546E-09
       0.272000	 6.070E-04	 4.052E-04	-6.730E-09
       0.274000	 6.156E-04	 4.093E-04	-6.917E-09
       0.276000	 6.241E-04	 4.134E-04	-7.106E-09
       0.278000	 6.327E-04	 4.174E-04	-7.298E-09
       0.280000	 6.412E-04	 4.214E-04	-7.491E-09
       0.282000	 6.498E-04	 4.254E-04	-7.687E-09
       0.284000	 6.583E-04	 4.293E-04	-7.885E-09
       0.286000	 6.668E-04	 4.332E-04	-8.084E-09
       0.288000	 6.754E-04	 4.370E-04	-8.285E-09
       0.290000	 6.839E-04	 4.408E-04	-8.488E-09
       0.292000	 6.924E-04	 4.445E-04	-8.693E-09
       0.294000	 7.009E-04	 4.482E-04	-8.899E-09
       0.296000	 7.094E-04	 4.518E-04	-9.107E-09
       0.298000	 7.179E-04	 4.554E-04	-9.316E-09
       0.300000	 7.264E-04	 4.589E-04	-9.527E-09
       0.302000	 7.349E-04	 4.623E-04	-9.739E-09
       0.304000	 7.433E-04	 4.657E-04	-9.952E-09
       0.306000	 7.518E-04	 4.690E-04	-1.017E-08
       0.308000	 7.602E-04	 4.723E-04	-1.038E-08
       0.310000	 7.686E-04	 4.755E-04	-1.060E-08
       0.312000	 7.770E-04	 4.787E-04	-1.082E-08
       0.314000	 7.853E-04	 4.818E-04	-1.104E-08
       0.316000	 7.937E-04	 4.849E-04	-1.126E-08
       0.318000	 8.020E-04	 4.879E-04	-1.148E-08
       0.320000	 8.103E-04	 4.909E-04	-1.170E-08
       0.322000	 8.186E-04	 4.938E-04	-1.192E-08
       0.324000	 8.269E-04	 4.967E-04	-1.215E-08
       0.326000	 8.351E-04	 4.995E-04	-1.237E-08
       0.328000	 8.434E-04	 5.023E-04	-1.260E-08
       0.330000	 8.516E-04	 5.050E-04	-1.283E-08
       0.332000	 8.598E-04	 5.077E-04	-1.306E-08
       0.334000	 8.679E-04	 5.104E-04	-1.328E-08
       0.336000	 8.760E-04	 5.130E-04	-1.351E-08
       0.338000	 8.841E-04	 5.156E-04	-1.375E-08
       0.340000	 8.922E-04	 5.182E-04	-1.398E-08
       0.342000	 9.003E-04	 5.207E-04	-1.421E-08
       0.344000	 9.083E-04	 5.232E-04	-1.445E-08
       0.346000	 9.164E-04	 5.257E-04	-1.468E-08
       0.348000	 9.244E-04	 5.282E-04	-1.492E-08
       0.350000	 9.324E-04	 5.306E-04	-1.515E-08
       0.352000	 9.403E-04	 5.330E-04	-1.539E-08
       0.354000	 9.483E-04	 5.354E-04	-1.563E-08
       0.356000	 9.562E-04	 5.378E-04	-1.588E-08
       0.358000	 9.641E-04	 5.401E-04	-1.612E-08
       0.360000	 9.721E-04	 5.424E-04	-1.636E-08
       0.362000	 9.800E-04	 5.447E-04	-1.661E-08
       0.364000	 9.879E-04	 5.470E-04	-1.686E-08
       0.366000	 9.958E-04	 5.492E-04	-1.710E-08
       0.368000	 1.004E-03	 5.514E-04	-1.736E-08
       0.370000	 1.012E-03	 5.536E-04	-1.761E-08
       0.372000	 1.020E-03	 5.557E-04	-1.786E-08
       0.374000	 1.027E-03	 5.578E-04	-1.812E-08
       0.376000	 1.035E-03	 5.599E-04	-1.838E-08
       0.378000	 1.043E-03	 5.619E-04	-1.864E-08
       0.380000	 1.051E-03	 5.639E-04	-1.890E-08
       0.382000	 1.059E-03	 5.658E-04	-1.916E-08
       0.384000	 1.067E-03	 5.677E-04	-1.943E-08
       0.386000	 1.075E-03	 5.695E-04	-1.970E-08
       0.388000	 1.083E-03	 5.713E-04	-1.997E-08
       0.390000	 1.091E-03	 5.730E-04	-2.024E-08
       0.392000	 1.099E-03	 5.746E-04	-2.051E-08
       0.394000	 1.107E-03	 5.761E-04	-2.078E-08
       0.396000	 1.115E-03	 5.776E-04	-2.106E-08
       0.398000	 1.123E-03	 5.790E-04	-2.134E-08
       0.400000	 1.131E-03	 5.803E-04	-2.162E-08
       0.402000	 1.139E-03	 5.816E-04	-2.190E-08
       0.404000	 1.147E-03	 5.827E-04	-2.219E-08
       0.406000	 1.155E-03	 5.838E-04	-2.247E-08
       0.408000	 1.164E-03	 5.848E-04	-2.276E-08
       0.410000	 1.172E-03	 5.857E-04	-2.304E-08
       0.412000	 1.180E-03	 5.865E-04	-2.333E-08
       0.414000	 1.188E-03	 5.872E-04	-2.362E-08
       0.416000	 1.196E-03	 5.878E-04	-2.391E-08
       0.418000	 1.204E-03	 5.883E-04	-2.420E-08
       0.420000	 1.212E-03	 5.888E-04	-2.450E-08
       0.422000	 1.220E-03	 5.891E-04	-2.479E-08
       0.424000	 1.228E-03	 5.894E-04	-2.508E-08
       0.426000	 1.236E-03	 5.896E-04	-2.538E-08
       0.428000	 1.244E-03	 5.897E-04	-2.567E-08
       0.430000	 1.252E-03	 5.897E-04	-2.597E-08
       0.432000	 1.260E-03	 5.896E-04	-2.626E-08
       0.434000	 1.268E-03	 5.894E-04	-2.656E-08
       0.436000	 1.276E-03	 5.892E-04	-2.685E-08
       0.438000	 1.284E-03	 5.889E-04	-2.715E-08
       0.440000	 1.292E-03	 5.885E-04	-2.744E-08
       0.442000	 1.300E-03	 5.880E-04	-2.774E-08
       0.444000	 1.308E-03	 5.875E-04	-2.803E-08
       0.446000	 1.316E-03	 5.869E-04	-2.833E-08
       0.448000	 1.323E-03	 5.863E-04	-2.862E-08
       0.450000	 1.331E-03	 5.856E-04	-2.892E-08
       0.452000	 1.339E-03	 5.848E-04	-2.921E-08
       0.454000	 1.347E-03	 5.840E-04	-2.951E-08
       0.456000	 1.354E-03	 5.831E-04	-2.980E-08
       0.458000	 1.362E-03	 5.821E-04	-3.009E-08
       0.460000	 1.369E-03	 5.812E-04	-3.038E-08
       0.462000	 1.377E-03	 5.801E-04	-3.067E-08
       0.464000	 1.384E-03	 5.790E-04	-3.096E-08
       0.466000	 1.391E-03	 5.779E-04	-3.124E-08
       0.468000	 1.399E-03	 5.768E-04	-3.153E-08
       0.470000	 1.406E-03	 5.755E-04	-3.181E-08
       0.472000	 1.413E-03	 5.743E-04	-3.210E-08
       0.474000	 1.420E-03	 5.730E-04	-3.238E-08
       0.476000	 1.427E-03	 5.717E-04	-3.266E-08
       0.478000	 1.434E-03	 5.703E-04	-3.293E-08
       0.480000	 1.441E-03	 5.689E-04	-3.321E-08
       0.482000	 1.448E-03	 5.675E-04	-3.348E-08
       0.484000	 1.455E-03	 5.660E-04	-3.375E-08
       0.486000	 1.461E-03	 5.645E-04	-3.401E-08
       0.488000	 1.468E-03	 5.629E-04	-3.428E-08
       0.490000	 1.474E-03	 5.613E-04	-3.454E-08
       0.492000	 1.481E-03	 5.597E-04	-3.479E-08
       0.494000	 1.487E-03	 5.580E-04	-3.504E-08
       0.496000	 1.493E-03	 5.563E-04	-3.529E-08
       0.498000	 1.500E-03	 5.545E-04	-3.554E-08
       0.500000	 1.506E-03	 5.527E-04	-3.578E-08
       0.502000	 1.512E-03	 5.508E-04	-3.601E-08
       0.504000	 1.518E-03	 5.489E-04	-3.624E-08
       0.506000	 1.523E-03	 5.469E-04	-3.647E-08
       0.508000	 1.529E-03	 5.449E-04	-3.669E-08
       0.510000	 1.535E-03	 5.428E-04	-3.691E-08
       0.512000	 1.540E-03	 5.407E-04	-3.712E-08
       0.514000	 1.546E-03	 5.385E-04	-3.733E-08
       0.516000	 1.551E-03	 5.363E-04	-3.753E-08
       0.518000	 1.556E-03	 5.340E-04	-3.772E-08
       0.520000	 1.561E-03	 5.316E-04	-3.791E-08
       0.522000	 1.566E-03	 5.292E-04	-3.810E-08
       0.524000	 1.571E-03	 5.266E-04	-3.828E-08
       0.526000	 1.576E-03	 5.241E-04	-3.845E-08
       0.528000	 1.580E-03	 5.214E-04	-3.862E-08
       0.530000	 1.585E-03	 5.187E-04	-3.878E-08
       0.532000	 1.590E-03	 5.159E-04	-3.894E-08
       0.534000	 1.594E-03	 5.131E-04	-3.909E-08
       0.536000	 1.598E-03	 5.102E-04	-3.924E-08
       0.538000	 1.602E-03	 5.072E-04	-3.938E-08
       0.540000	 1.607E-03	 5.041E-04	-3.951E-08
       0.542000	 1.611E-03	 5.010E-04	-3.965E-08
       0.544000	 1.614E-03	 4.978E-04	-3.977E-08
       0.546000	 1.618E-03	 4.945E-04	-3.989E-08
       0.548000	 1.622E-03	 4.912E-04	-4.001E-08
       0.550000	 1.626E-03	 4.878E-04	-4.013E-08
       0.552000	 1.629E-03	 4.843E-04	-4.023E-08
       0.554000	 1.633E-03	 4.808E-04	-4.034E-08
       0.556000	 1.636E-03	 4.772E-04	-4.044E-08
       0.558000	 1.640E-03	 4.736E-04	-4.054E-08
       0.560000	 1.643E-03	 4.699E-04	-4.063E-08
       0.562000	 1.646E-03	 4.662E-04	-4.072E-08
       0.564000	 1.649E-03	 4.624E-04	-4.081E-08
       0.566000	 1.653E-03	 4.586E-04	-4.090E-08
       0.568000	 1.656E-03	 4.547E-04	-4.098E-08
       0.570000	 1.659E-03	 4.508E-04	-4.106E-08
       0.572000	 1.662E-03	 4.468E-04	-4.114E-08
       0.574000	 1.665E-03	 4.429E-04	-4.122E-08
       0.576000	 1.667E-03	 4.389E-04	-4.129E-08
       0.578000	 1.670E-03	 4.348E-04	-4.136E-08
       0.580000	 1.673E-03	 4.308E-04	-4.144E-08
       0.582000	 1.676E-03	 4.267E-04	-4.151E-08
       0.584000	 1.678E-03	 4.225E-04	-4.157E-08
       0.586000	 1.681E-03	 4.184E-04	-4.164E-08
       0.588000	 1.684E-03	 4.142E-04	-4.171E-08
       0.590000	 1.686E-03	 4.101E-04	-4.177E-08
       0.592000	 1.689E-03	 4.059E-04	-4.183E-08
       0.594000	 1.691E-03	 4.016E-04	-4.190E-08
       0.596000	 1.694E-03	 3.974E-04	-4.196E-08
       0.598000	 1.696E-03	 3.931E-04	-4.202E-08
       0.600000	 1.699E-03	 3.889E-04	-4.208E-08
       0.602000	 1.701E-03	 3.846E-04	-4.214E-08
       0.604000	 1.703E-03	 3.803E-04	-4.219E-08
       0.606000	 1.705E-03	 3.760E-04	-4.225E-08
       0.608000	 1.708E-03	 3.716E-04	-4.231E-08
       0.610000	 1.710E-03	 3.673E-04	-4.236E-08
       0.612000	 1.712E-03	 3.629E-04	-4.242E-08
       0.614000	 1.714E-03	 3.585E-04	-4.247E-08
       0.616000	 1.716E-03	 3.541E-04	-4.252E-08
       0.618000	 1.718E-03	 3.497E-04	-4.258E-08
       0.620000	 1.720E-03	 3.453E-04	-4.263E-08
       0.622000	 1.722E-03	 3.408E-04	-4.268E-08
       0.624000	 1.724E-03	 3.363E-04	-4.273E-08
       0.626000	 1.726E-03	 3.318E-04	-4.278E-08
       0.628000	 1.728E-03	 3.272E-04	-4.283E-08
       0.630000	 1.730E-03	 3.226E-04	-4.288E-08
       0.632000	 1.732E-03	 3.180E-04	-4.292E-08
       0.634000	 1.734E-03	 3.134E-04	-4.297E-08
       0.636000	 1.735E-03	 3.088E-04	-4.301E-08
       0.638000	 1.737E-03	 3.041E-04	-4.306E-08
       0.640000	 1.739E-03	 2.994E-04	-4.310E-08
       0.642000	 1.740E-03	 2.946E-04	-4.314E-08
       0.644000	 1.742E-03	 2.898E-04	-4.318E-08
       0.646000	 1.744E-03	 2.850E-04	-4.322E-08
       0.648000	 1.745E-03	 2.802E-04	-4.326E-08
       0.650000	 1.747E-03	 2.753E-04	-4.330E-08
       0.652000	 1.748E-03	 2.704E-04	-4.333E-08
       0.654000	 1.749E-03	 2.655E-04	-4.337E-08
       0.656000	 1.751E-03	 2.605E-04	-4.340E-08
       0.658000	 1.752E-03	 2.555E-04	-4.343E-08
       0.660000	 1.753E-03	 2.505E-04	-4.346E-08
       0.662000	 1.754E-03	 2.455E-04	-4.348E-08
       0.664000	 1.755E-03	 2.404E-04	-4.351E-08
       0.666000	 1.756E-03	 2.353E-04	-4.353E-08
       0.668000	 1.757E-03	 2.302E-04	-4.355E-08
       0.670000	 1.758E-03	 2.251E-04	-4.356E-08
       0.672000	 1.759E-03	 2.200E-04	-4.358E-08
       0.674000	 1.760E-03	 2.148E-04	-4.359E-08
       0.676000	 1.761E-03	 2.097E-04	-4.360E-08
       0.678000	 1.761E-03	 2.045E-04	-4.360E-08
       0.680000	 1.762E-03	 1.993E-04	-4.361E-08
       0.682000	 1.762E-03	 1.941E-04	-4.361E-08
       0.684000	 1.763E-03	 1.890E-04	-4.360E-08
       0.686000	 1.763E-03	 1.838E-04	-4.360E-08
       0.688000	 1.764E-03	 1.786E-04	-4.359E-08
       0.690000	 1.764E-03	 1.735E-04	-4.357E-08
       0.692000	 1.764E-03	 1.683E-04	-4.355E-08
       0.694000	 1.764E-03	 1.632E-04	-4.353E-08
       0.696000	 1.764E-03	 1.581E-04	-4.351E-08
       0.698000	 1.764E-03	 1.530E-04	-4.348E-08
       0.700000	 1.763E-03	 1.480E-04	-4.345E-08
       0.702000	 1.763E-03	 1.429E-04	-4.341E-08
       0.704000	 1.763E-03	 1.379E-04	-4.337E-08
       0.706000	 1.762E-03	 1.329E-04	-4.333E-08
       0.708000	 1.762E-03	 1.280E-04	-4.328E-08
       0.710000	 1.761E-03	 1.231E-04	-4.323E-08
       0.712000	 1.760E-03	 1.182E-04	-4.318E-08
       0.714000	 1.760E-03	 1.133E-04	-4.312E-08
       0.716000	 1.759E-03	 1.085E-04	-4.306E-08
       0.718000	 1.758E-03	 1.038E-04	-4.299E-08
       0.720000	 1.757E-03	 9.903E-05	-4.292E-08
       0.722000	 1.756E-03	 9.434E-05	-4.285E-08
       0.724000	 1.754E-03	 8.968E-05	-4.277E-08
       0.726000	 1.753E-03	 8.506E-05	-4.269E-08
       0.728000	 1.752E-03	 8.047E-05	-4.261E-08
       0.730000	 1.750E-03	 7.593E-05	-4.253E-08
       0.732000	 1.749E-03	 7.142E-05	-4.244E-08
       0.734000	 1.747E-03	 6.695E-05	-4.234E-08
       0.736000	 1.746E-03	 6.251E-05	-4.225E-08
       0.738000	 1.744E-03	 5.811E-05	-4.215E-08
       0.740000	 1.742E-03	 5.374E-05	-4.205E-08
       0.742000	 1.740E-03	 4.941E-05	-4.195E-08
       0.744000	 1.738E-03	 4.511E-05	-4.184E-08
       0.746000	 1.736E-03	 4.084E-05	-4.173E-08
       0.748000	 1.734E-03	 3.660E-05	-4.162E-08
       0.750000	 1.732E-03	 3.239E-05	-4.151E-08
       0.752000	 1.730E-03	 2.821E-05	-4.139E-08
       0.754000	 1.728E-03	 2.406E-05	-4.127E-08
       0.756000	 1.725E-03	 1.994E-05	-4.115E-08
       0.758000	 1.723E-03	 1.584E-05	-4.103E-08
       0.760000	 1.721E-03	 1.177E-05	-4.091E-08
       0.762000	 1.718E-03	 7.731E-06	-4.078E-08
       0.764000	 1.716E-03	 3.715E-06	-4.066E-08
       0.766000	 1.713E-03	-2.741E-07	-4.053E-08
       0.768000	 1.711E-03	-4.237E-06	-4.040E-08
       0.770000	 1.708E-03	-8.174E-06	-4.027E-08
       0.772000	 1.705E-03	-1.208E-05	-4.014E-08
       0.774000	 1.703E-03	-1.597E-05	-4.000E-08
       0.776000	 1.700E-03	-1.982E-05	-3.987E-08
       0.778000	 1.697E-03	-2.365E-05	-3.974E-08
       0.780000	 1.694E-03	-2.744E-05	-3.960E-08
       0.782000	 1.691E-03	-3.121E-05	-3.946E-08
       0.784000	 1.688E-03	-3.494E-05	-3.933E-08
       0.786000	 1.685E-03	-3.864E-05	-3.919E-08
       0.788000	 1.683E-03	-4.231E-05	-3.906E-08
       0.790000	 1.680E-03	-4.594E-05	-3.892E-08
       0.792000	 1.677E-03	-4.953E-05	-3.878E-08
       0.794000	 1.673E-03	-5.308E-05	-3.864E-08
       0.796000	 1.670E-03	-5.659E-05	-3.851E-08
       0.798000	 1.667E-03	-6.006E-05	-3.837E-08
       0.800000	 1.664E-03	-6.348E-05	-3.823E-08
       0.802000	 1.661E-03	-6.685E-05	-3.810E-08
       0.804000	 1.658E-03	-7.018E-05	-3.796E-08
       0.806000	 1.655E-03	-7.345E-05	-3.783E-08
       0.808000	 1.652E-03	-7.667E-05	-3.769E-08
       0.810000	 1.649E-03	-7.983E-05	-3.756E-08
       0.812000	 1.645E-03	-8.294E-05	-3.742E-08
       0.814000	 1.642E-03	-8.599E-05	-3.729E-08
       0.816000	 1.639E-03	-8.897E-05	-3.715E-08
       0.818000	 1.636E-03	-9.190E-05	-3.702E-08
       0.820000	 1.632E-03	-9.476E-05	-3.689E-08
       0.822000	 1.629E-03	-9.755E-05	-3.676E-08
       0.824000	 1.626E-03	-1.003E-04	-3.663E-08
       0.826000	 1.623E-03	-1.029E-04	-3.649E-08
       0.828000	 1.619E-03	-1.055E-04	-3.636E-08
       0.830000	 1.616E-03	-1.080E-04	-3.623E-08
       0.832000	 1.613E-03	-1.105E-04	-3.610E-08
       0.834000	 1.609E-03	-1.128E-04	-3.597E-08
       0.836000	 1.606E-03	-1.151E-04	-3.584E-08
       0.838000	 1.603E-03	-1.174E-04	-3.571E-08
       0.840000	 1.599E-03	-1.195E-04	-3.558E-08
       0.842000	 1.596E-03	-1.216E-04	-3.545E-08
       0.844000	 1.593E-03	-1.236E-04	-3.532E-08
       0.846000	 1.589E-03	-1.255E-04	-3.519E-08
       0.848000	 1.586E-03	-1.274E-04	-3.506E-08
       0.850000	 1.582E-03	-1.291E-04	-3.493E-08
       0.852000	 1.579E-03	-1.309E-04	-3.480E-08
       0.854000	 1.575E-03	-1.325E-04	-3.466E-08
       0.856000	 1.572E-03	-1.341E-04	-3.453E-08
       0.858000	 1.568E-03	-1.355E-04	-3.439E-08
       0.860000	 1.564E-03	-1.370E-04	-3.426E-08
       0.862000	 1.561E-03	-1.383E-04	-3.412E-08
       0.864000	 1.557E-03	-1.396E-04	-3.398E-08
       0.866000	 1.553E-03	-1.408E-04	-3.384E-08
       0.868000	 1.550E-03	-1.420E-04	-3.369E-08
       0.870000	 1.546E-03	-1.431E-04	-3.355E-08
       0.872000	 1.542E-03	-1.441E-04	-3.340E-08
       0.874000	 1.538E-03	-1.451E-04	-3.325E-08
       0.876000	 1.534E-03	-1.460E-04	-3.310E-08
       0.878000	 1.530E-03	-1.468E-04	-3.295E-08
       0.880000	 1.526E-03	-1.476E-04	-3.280E-08
       0.882000	 1.522E-03	-1.483E-04	-3.264E-08
       0.884000	 1.517E-03	-1.490E-04	-3.248E-08
       0.886000	 1.513E-03	-1.496E-04	-3.232E-08
       0.888000	 1.509E-03	-1.501E-04	-3.215E-08
       0.890000	 1.505E-03	-1.506E-04	-3.198E-08
       0.892000	 1.500E-03	-1.511E-04	-3.181E-08
       0.894000	 1.496E-03	-1.514E-04	-3.164E-08
       0.896000	 1.491E-03	-1.517E-04	-3.147E-08
       0.898000	 1.486E-03	-1.520E-04	-3.129E-08
       0.900000	 1.482E-03	-1.522E-04	-3.111E-08
       0.902000	 1.477E-03	-1.523E-04	-3.092E-08
       0.904000	 1.472E-03	-1.524E-04	-3.074E-08
       0.906000	 1.467E-03	-1.524E-04	-3.055E-08
       0.908000	 1.462E-03	-1.523E-04	-3.035E-08
       0.910000	 1.457E-03	-1.522E-04	-3.016E-08
       0.912000	 1.452E-03	-1.520E-04	-2.996E-08
       0.914000	 1.447E-03	-1.518E-04	-2.976E-08
       0.916000	 1.442E-03	-1.514E-04	-2.956E-08
       0.918000	 1.437E-03	-1.511E-04	-2.935E-08
       0.920000	 1.432E-03	-1.506E-04	-2.914E-08
       0.922000	 1.426E-03	-1.501E-04	-2.893E-08
       0.924000	 1.421E-03	-1.495E-04	-2.871E-08
       0.926000	 1.415E-03	-1.488E-04	-2.850E-08
       0.928000	 1.410E-03	-1.480E-04	-2.828E-08
       0.930000	 1.404E-03	-1.472E-04	-2.806E-08
       0.932000	 1.398E-03	-1.463E-04	-2.783E-08
       0.934000	 1.393E-03	-1.453E-04	-2.761E-08
       0.936000	 1.387E-03	-1.443E-04	-2.738E-08
       0.938000	 1.381E-03	-1.431E-04	-2.715E-08
       0.940000	 1.375E-03	-1.419E-04	-2.691E-08
       0.942000	 1.369E-03	-1.406E-04	-2.668E-08
       0.944000	 1.363E-03	-1.393E-04	-2.644E-08
       0.946000	 1.357E-03	-1.378E-04	-2.620E-08
       0.948000	 1.351E-03	-1.363E-04	-2.596E-08
       0.950000	 1.344E-03	-1.346E-04	-2.572E-08
       0.952000	 1.338E-03	-1.329E-04	-2.548E-08
       0.954000	 1.332E-03	-1.312E-04	-2.523E-08
       0.956000	 1.326E-03	-1.293E-04	-2.499E-08
       0.958000	 1.319E-03	-1.274E-04	-2.474E-08
       0.960000	 1.313E-03	-1.253E-04	-2.450E-08
       0.962000	 1.306E-03	-1.232E-04	-2.425E-08
       0.964000	 1.300E-03	-1.211E-04	-2.400E-08
       0.966000	 1.293E-03	-1.188E-04	-2.375E-08
       0.968000	 1.287E-03	-1.165E-04	-2.350E-08
       0.970000	 1.280E-03	-1.141E-04	-2.325E-08
       0.972000	 1.273E-03	-1.116E-04	-2.300E-08
       0.974000	 1.267E-03	-1.091E-04	-2.276E-08
       0.976000	 1.260E-03	-1.064E-04	-2.251E-08
       0.978000	 1.253E-03	-1.038E-04	-2.226E-08
       0.980000	 1.247E-03	-1.010E-04	-2.201E-08
       0.982000	 1.240E-03	-9.819E-05	-2.176E-08
       0.984000	 1.233E-03	-9.531E-05	-2.152E-08
       0.986000	 1.226E-03	-9.237E-05	-2.127E-08
       0.988000	 1.220E-03	-8.937E-05	-2.103E-08
       0.990000	 1.213E-03	-8.632E-05	-2.079E-08
       0.992000	 1.206E-03	-8.321E-05	-2.054E-08
       0.994000	 1.199E-03	-8.004E-05	-2.030E-08
       0.996000	 1.192E-03	-7.682E-05	-2.006E-08
       0.998000	 1.186E-03	-7.355E-05	-1.983E-08
       1.000000	 1.179E-03	-7.023E-05	-1.959E-08
       1.002000	 1.172E-03	-6.686E-05	-1.936E-08
       1.004000	 1.165E-03	-6.344E-05	-1.912E-08
       1.006000	 1.158E-03	-5.998E-05	-1.889E-08
       1.008000	 1.152E-03	-5.647E-05	-1.866E-08
       1.010000	 1.145E-03	-5.292E-05	-1.844E-08
       1.012000	 1.138E-03	-4.932E-05	-1.821E-08
       1.014000	 1.131E-03	-4.568E-05	-1.799E-08
       1.016000	 1.125E-03	-4.199E-05	-1.777E-08
       1.018000	 1.118E-03	-3.826E-05	-1.755E-08
       1.020000	 1.111E-03	-3.450E-05	-1.733E-08
       1.022000	 1.104E-03	-3.068E-05	-1.711E-08
       1.024000	 1.098E-03	-2.683E-05	-1.690E-08
       1.026000	 1.091E-03	-2.293E-05	-1.669E-08
       1.028000	 1.084E-03	-1.900E-05	-1.648E-08
       1.030000	 1.077E-03	-1.501E-05	-1.627E-08
       1.032000	 1.071E-03	-1.099E-05	-1.607E-08
       1.034000	 1.064E-03	-6.924E-06	-1.586E-08
       1.036000	 1.057E-03	-2.813E-06	-1.566E-08
       1.038000	 1.051E-03	 1.341E-06	-1.546E-08
       1.040000	 1.044E-03	 5.540E-06	-1.527E-08
       1.042000	 1.037E-03	 9.785E-06	-1.507E-08
       1.044000	 1.031E-03	 1.407E-05	-1.488E-08
       1.046000	 1.024E-03	 1.841E-05	-1.469E-08
       1.048000	 1.018E-03	 2.279E-05	-1.450E-08
       1.050000	 1.011E-03	 2.722E-05	-1.431E-08
       1.052000	 1.004E-03	 3.170E-05	-1.413E-08
       1.054000	 9.978E-04	 3.622E-05	-1.395E-08
       1.056000	 9.912E-04	 4.079E-05	-1.376E-08
       1.058000	 9.846E-04	 4.541E-05	-1.359E-08
       1.060000	 9.781E-04	 5.007E-05	-1.341E-08
       1.062000	 9.715E-04	 5.478E-05	-1.323E-08
       1.064000	 9.649E-04	 5.954E-05	-1.306E-08
       1.066000	 9.584E-04	 6.435E-05	-1.289E-08
       1.068000	 9.518E-04	 6.921E-05	-1.272E-08
       1.070000	 9.452E-04	 7.411E-05	-1.255E-08
       1.072000	 9.387E-04	 7.905E-05	-1.238E-08
       1.074000	 9.321E-04	 8.404E-05	-1.222E-08
       1.076000	 9.256E-04	 8.908E-05	-1.206E-08
       1.078000	 9.190E-04	 9.416E-05	-1.190E-08
       1.080000	 9.124E-04	 9.928E-05	-1.174E-08
       1.082000	 9.059E-04	 1.044E-04	-1.158E-08
       1.084000	 8.993E-04	 1.096E-04	-1.142E-08
       1.086000	 8.927E-04	 1.149E-04	-1.127E-08
       1.088000	 8.861E-04	 1.201E-04	-1.112E-08
       1.090000	 8.795E-04	 1.255E-04	-1.097E-08
       1.092000	 8.729E-04	 1.308E-04	-1.082E-08
       1.094000	 8.663E-04	 1.362E-04	-1.067E-08
       1.096000	 8.597E-04	 1.416E-04	-1.052E-08
       1.098000	 8.530E-04	 1.470E-04	-1.038E-08
       1.100000	 8.464E-04	 1.525E-04	-1.024E-08
       1.102000	 8.397E-04	 1.580E-04	-1.009E-08
       1.104000	 8.331E-04	 1.635E-04	-9.955E-09
       1.106000	 8.264E-04	 1.690E-04	-9.817E-09
       1.108000	 8.197E-04	 1.745E-04	-9.680E-09
       1.110000	 8.130E-04	 1.801E-04	-9.545E-09
       1.112000	 8.063E-04	 1.857E-04	-9.412E-09
       1.114000	 7.996E-04	 1.913E-04	-9.280E-09
       1.116000	 7.928E-04	 1.969E-04	-9.149E-09
       1.118000	 7.861E-04	 2.025E-04	-9.020E-09
       1.120000	 7.793E-04	 2.081E-04	-8.893E-09
       1.122000	 7.726E-04	 2.138E-04	-8.768E-09
       1.124000	 7.658E-04	 2.194E-04	-8.644E-09
       1.126000	 7.590E-04	 2.250E-04	-8.521E-09
       1.128000	 7.522E-04	 2.307E-04	-8.401E-09
       1.130000	 7.454E-04	 2.363E-04	-8.282E-09
       1.132000	 7.385E-04	 2.420E-04	-8.165E-09
       1.134000	 7.317E-04	 2.476E-04	-8.049E-09
       1.136000	 7.249E-04	 2.533E-04	-7.936E-09
       1.138000	 7.180E-04	 2.589E-04	-7.824E-09
       1.140000	 7.112E-04	 2.645E-04	-7.714E-09
       1.142000	 7.044E-04	 2.702E-04	-7.607E-09
       1.144000	 6.975E-04	 2.758E-04	-7.501E-09
       1.146000	 6.907E-04	 2.814E-04	-7.397E-09
       1.148000	 6.839E-04	 2.871E-04	-7.295E-09
       1.150000	 6.770E-04	 2.927E-04	-7.195E-09
       1.152000	 6.702E-04	 2.983E-04	-7.098E-09
       1.154000	 6.634E-04	 3.039E-04	-7.003E-09
       1.156000	 6.566E-04	 3.095E-04	-6.910E-09
       1.158000	 6.498E-04	 3.151E-04	-6.819E-09
       1.160000	 6.430E-04	 3.206E-04	-6.730E-09
       1.162000	 6.363E-04	 3.262E-04	-6.644E-09
       1.164000	 6.296E-04	 3.318E-04	-6.561E-09
       1.166000	 6.229E-04	 3.373E-04	-6.479E-09
       1.168000	 6.162E-04	 3.429E-04	-6.401E-09
       1.170000	 6.095E-04	 3.484E-04	-6.324E-09
       1.172000	 6.029E-04	 3.540E-04	-6.251E-09
       1.174000	 5.963E-04	 3.595E-04	-6.180E-09
       1.176000	 5.898E-04	 3.650E-04	-6.111E-09
       1.178000	 5.832E-04	 3.705E-04	-6.045E-09
       1.180000	 5.767E-04	 3.760E-04	-5.982E-09
       1.182000	 5.703E-04	 3.815E-04	-5.921E-09
       1.184000	 5.639E-04	 3.869E-04	-5.863E-09
       1.186000	 5.575E-04	 3.924E-04	-5.807E-09
       1.188000	 5.512E-04	 3.978E-04	-5.754E-09
       1.190000	 5.450E-04	 4.033E-04	-5.704E-09
       1.192000	 5.388E-04	 4.087E-04	-5.656E-09
       1.194000	 5.326E-04	 4.141E-04	-5.611E-09
       1.196000	 5.265E-04	 4.194E-04	-5.568E-09
       1.198000	 5.204E-04	 4.248E-04	-5.528E-09
       1.200000	 5.144E-04	 4.301E-04	-5.491E-09
       1.202000	 5.085E-04	 4.355E-04	-5.456E-09
       1.204000	 5.026E-04	 4.408E-04	-5.423E-09
       1.206000	 4.967E-04	 4.460E-04	-5.392E-09
       1.208000	 4.910E-04	 4.513E-04	-5.364E-09
       1.210000	 4.853E-04	 4.565E-04	-5.339E-09
       1.212000	 4.796E-04	 4.617E-04	-5.315E-09
       1.214000	 4.740E-04	 4.668E-04	-5.294E-09
       1.216000	 4.685E-04	 4.720E-04	-5.274E-09