
Predictions were generated on 04-Jul-2022 at 10:54:25 using BeamDyn




Time	TipTDxr   	TipTDyr   	TipTDzr   
(s)	(m)	(m)	(m)
